 Gaussian 16, Revision C.02,
 Gaussian 16:  ES64L-G16RevC.02  7-Dec-2021

 -------------------------------------------------------
 #P RHF cc-pVQZ punch=(NaturalOrbitals) pop=NO scf=tight
 -------------------------------------------------------

 -------------------------------------------------------
 Gaussian Test o2 SINGLET DELTA Dunning cc-pVQZ DIOXYGEN
 -------------------------------------------------------
 Symbolic Z-matrix:
 Charge =  0 Multiplicity = 1

                         Standard orientation:
 ---------------------------------------------------------------------
 Center     Atomic      Atomic             Coordinates (Angstroms)
 Number     Number       Type             X           Y           Z
 ---------------------------------------------------------------------
      1          8           0        0.000000    0.000000    0.610000
      2          8           0        0.000000    0.000000   -0.610000
 ---------------------------------------------------------------------

 SCF Done:  E(RHF) =  -149.598572559     A.U. after    9 cycles

 Mulliken charges:
               1
     1  O   -0.000000
     2  O   -0.000000
 Sum of Mulliken charges =  -0.00000

 Dipole moment (field-independent basis, Debye):
    X=             -0.0000    Y=              0.0000    Z=              0.0000  Tot=              0.0000
 Quadrupole moment (field-independent basis, Debye-Ang):
   XX=             -9.2708   YY=            -10.8258   ZZ=            -10.3982
   XY=              0.0000   XZ=              0.0000   YZ=              0.0000

 Normal termination of Gaussian 16 at Fri Mar 17 11:13:53 2023.
